 Entering Gaussian System, Link 0=g16
 Input=n2_hf_d_1.1.gjf
 Output=n2_hf_d_1.1.log
 Initial command:
 /Users/takafumishiraogawa/Applications/g16/l1.exe "/Users/takafumishiraogawa/Soft/scr/Gau-84013.inp" -scrdir="/Users/takafumishiraogawa/Soft/scr/"
 Entering Link 1 = /Users/takafumishiraogawa/Applications/g16/l1.exe PID=     84014.
  
 Copyright (c) 1988-2019, Gaussian, Inc.  All Rights Reserved.
  
 This is part of the Gaussian(R) 16 program.  It is based on
 the Gaussian(R) 09 system (copyright 2009, Gaussian, Inc.),
 the Gaussian(R) 03 system (copyright 2003, Gaussian, Inc.),
 the Gaussian(R) 98 system (copyright 1998, Gaussian, Inc.),
 the Gaussian(R) 94 system (copyright 1995, Gaussian, Inc.),
 the Gaussian 92(TM) system (copyright 1992, Gaussian, Inc.),
 the Gaussian 90(TM) system (copyright 1990, Gaussian, Inc.),
 the Gaussian 88(TM) system (copyright 1988, Gaussian, Inc.),
 the Gaussian 86(TM) system (copyright 1986, Carnegie Mellon
 University), and the Gaussian 82(TM) system (copyright 1983,
 Carnegie Mellon University). Gaussian is a federally registered
 trademark of Gaussian, Inc.
  
 This software contains proprietary and confidential information,
 including trade secrets, belonging to Gaussian, Inc.
  
 This software is provided under written license and may be
 used, copied, transmitted, or stored only in accord with that
 written license.
  
 The following legend is applicable only to US Government
 contracts under FAR:
  
                    RESTRICTED RIGHTS LEGEND
  
 Use, reproduction and disclosure by the US Government is
 subject to restrictions as set forth in subparagraphs (a)
 and (c) of the Commercial Computer Software - Restricted
 Rights clause in FAR 52.227-19.
  
 Gaussian, Inc.
 340 Quinnipiac St., Bldg. 40, Wallingford CT 06492
  
  
 ---------------------------------------------------------------
 Warning -- This program may not be used in any manner that
 competes with the business of Gaussian, Inc. or will provide
 assistance to any competitor of Gaussian, Inc.  The licensee
 of this program is prohibited from giving any competitor of
 Gaussian, Inc. access to this program.  By using this program,
 the user acknowledges that Gaussian, Inc. is engaged in the
 business of creating and licensing software in the field of
 computational chemistry and represents and warrants to the
 licensee that it is not a competitor of Gaussian, Inc. and that
 it will not use this program in any manner prohibited above.
 ---------------------------------------------------------------
  

 Cite this work as:
 Gaussian 16, Revision C.01,
 M. J. Frisch, G. W. Trucks, H. B. Schlegel, G. E. Scuseria, 
 M. A. Robb, J. R. Cheeseman, G. Scalmani, V. Barone, 
 G. A. Petersson, H. Nakatsuji, X. Li, M. Caricato, A. V. Marenich, 
 J. Bloino, B. G. Janesko, R. Gomperts, B. Mennucci, H. P. Hratchian, 
 J. V. Ortiz, A. F. Izmaylov, J. L. Sonnenberg, D. Williams-Young, 
 F. Ding, F. Lipparini, F. Egidi, J. Goings, B. Peng, A. Petrone, 
 T. Henderson, D. Ranasinghe, V. G. Zakrzewski, J. Gao, N. Rega, 
 G. Zheng, W. Liang, M. Hada, M. Ehara, K. Toyota, R. Fukuda, 
 J. Hasegawa, M. Ishida, T. Nakajima, Y. Honda, O. Kitao, H. Nakai, 
 T. Vreven, K. Throssell, J. A. Montgomery, Jr., J. E. Peralta, 
 F. Ogliaro, M. J. Bearpark, J. J. Heyd, E. N. Brothers, K. N. Kudin, 
 V. N. Staroverov, T. A. Keith, R. Kobayashi, J. Normand, 
 K. Raghavachari, A. P. Rendell, J. C. Burant, S. S. Iyengar, 
 J. Tomasi, M. Cossi, J. M. Millam, M. Klene, C. Adamo, R. Cammi, 
 J. W. Ochterski, R. L. Martin, K. Morokuma, O. Farkas, 
 J. B. Foresman, and D. J. Fox, Gaussian, Inc., Wallingford CT, 2019.
 
 ******************************************
 Gaussian 16:  EM64M-G16RevC.01  3-Jul-2019
                19-Nov-2022 
 ******************************************
 --------------------
 # hf/def2tzvp nosymm
 --------------------
 1/38=1,172=1/1;
 2/12=2,15=1,17=6,18=5,40=1/2;
 3/5=44,7=101,11=9,25=1,30=1/1,2,3;
 4//1;
 5/5=2,38=5/2;
 6/7=2,8=2,9=2,10=2,28=1/1;
 99/5=1,9=1/99;
 --
 n2
 --
 Symbolic Z-matrix:
 Charge =  0 Multiplicity = 1
 N                     0.        0.        0. 
 N                     0.        0.        1.1 
 
                          Input orientation:                          
 ---------------------------------------------------------------------
 Center     Atomic      Atomic             Coordinates (Angstroms)
 Number     Number       Type             X           Y           Z
 ---------------------------------------------------------------------
      1          7           0        0.000000    0.000000    0.000000
      2          7           0        0.000000    0.000000    1.100000
 ---------------------------------------------------------------------
 Symmetry turned off by external request.
 Stoichiometry    N2
 Framework group  D*H[C*(N.N)]
 Deg. of freedom     1
 Full point group                 D*H     NOp   8
 Rotational constants (GHZ):           0.0000000          59.6538449          59.6538449
 Standard basis: def2TZVP (5D, 7F)
    62 basis functions,   102 primitive gaussians,    72 cartesian basis functions
     7 alpha electrons        7 beta electrons
       nuclear repulsion energy        23.5724393955 Hartrees.
 NAtoms=    2 NActive=    2 NUniq=    2 SFac= 1.00D+00 NAtFMM=   60 NAOKFM=F Big=F
 Integral buffers will be    131072 words long.
 Raffenetti 1 integral format.
 Two-electron integral symmetry is turned off.
 One-electron integrals computed using PRISM.
   1 Symmetry operations used in ECPInt.
 ECPInt:  NShTT=     253 NPrTT=     864 LenC2=     254 LenP2D=     816.
 LDataN:  DoStor=T MaxTD1= 6 Len=  172
 NBasis=    62 RedAO= T EigKep=  2.16D-04  NBF=    62
 NBsUse=    62 1.00D-06 EigRej= -1.00D+00 NBFU=    62
 ExpMin= 1.36D-01 ExpMax= 1.97D+04 ExpMxC= 6.73D+02 IAcc=3 IRadAn=         5 AccDes= 0.00D+00
 Harris functional with IExCor=  205 and IRadAn=       5 diagonalized for initial guess.
 HarFok:  IExCor=  205 AccDes= 0.00D+00 IRadAn=         5 IDoV= 1 UseB2=F ITyADJ=14
 ICtDFT=  3500011 ScaDFX=  1.000000  1.000000  1.000000  1.000000
 FoFCou: FMM=F IPFlag=           0 FMFlag=      100000 FMFlg1=           0
         NFxFlg=           0 DoJE=T BraDBF=F KetDBF=T FulRan=T
         wScrn=  0.000000 ICntrl=       500 IOpCl=  0 I1Cent=   200000004 NGrid=           0
         NMat0=    1 NMatS0=      1 NMatT0=    0 NMatD0=    1 NMtDS0=    0 NMtDT0=    0
 Symmetry not used in FoFCou.
 Keep R1 ints in memory in canonical form, NReq=3867597.
 Requested convergence on RMS density matrix=1.00D-08 within 128 cycles.
 Requested convergence on MAX density matrix=1.00D-06.
 Requested convergence on             energy=1.00D-06.
 No special actions if energy rises.
 SCF Done:  E(RHF) =  -108.987638245     A.U. after    9 cycles
            NFock=  9  Conv=0.38D-08     -V/T= 2.0023

 **********************************************************************

            Population analysis using the SCF Density.

 **********************************************************************

 Alpha  occ. eigenvalues --  -15.68442 -15.68094  -1.46971  -0.77927  -0.63394
 Alpha  occ. eigenvalues --   -0.61302  -0.61302
 Alpha virt. eigenvalues --    0.15272   0.15272   0.36351   0.37911   0.42945
 Alpha virt. eigenvalues --    0.42945   0.45019   0.59663   0.59663   0.62075
 Alpha virt. eigenvalues --    1.03858   1.04698   1.04698   1.32917   1.32917
 Alpha virt. eigenvalues --    1.51063   1.51063   1.54178   1.92930   1.92930
 Alpha virt. eigenvalues --    2.01136   2.15178   2.30454   2.30454   2.33817
 Alpha virt. eigenvalues --    2.59139   2.59139   2.89803   3.16902   3.82624
 Alpha virt. eigenvalues --    3.82624   3.95757   3.95757   3.98895   3.98895
 Alpha virt. eigenvalues --    4.44394   4.44394   4.54030   4.76995   4.76995
 Alpha virt. eigenvalues --    4.90535   4.90535   4.92522   4.92522   5.30276
 Alpha virt. eigenvalues --    5.30276   5.35928   5.41288   5.41288   6.61798
 Alpha virt. eigenvalues --    6.67025   6.67025   6.99649  32.51262  33.30779
          Condensed to atoms (all electrons):
               1          2
     1  N    6.259335   0.740665
     2  N    0.740665   6.259335
 Mulliken charges:
               1
     1  N    0.000000
     2  N   -0.000000
 Sum of Mulliken charges =   0.00000
 Mulliken charges with hydrogens summed into heavy atoms:
               1
     1  N    0.000000
     2  N   -0.000000
 Electronic spatial extent (au):  <R**2>=             54.3379
 Charge=              0.0000 electrons
 Dipole moment (field-independent basis, Debye):
    X=              0.0000    Y=              0.0000    Z=             -0.0000  Tot=              0.0000
 Quadrupole moment (field-independent basis, Debye-Ang):
   XX=            -10.3543   YY=            -10.3543   ZZ=            -11.6946
   XY=              0.0000   XZ=              0.0000   YZ=              0.0000
 Traceless Quadrupole moment (field-independent basis, Debye-Ang):
   XX=              0.4468   YY=              0.4468   ZZ=             -0.8935
   XY=              0.0000   XZ=              0.0000   YZ=              0.0000
 Octapole moment (field-independent basis, Debye-Ang**2):
  XXX=              0.0000  YYY=              0.0000  ZZZ=            -19.2961  XYY=              0.0000
  XXY=              0.0000  XXZ=             -5.6949  XZZ=              0.0000  YZZ=              0.0000
  YYZ=             -5.6949  XYZ=              0.0000
 Hexadecapole moment (field-independent basis, Debye-Ang**3):
 XXXX=             -8.9399 YYYY=             -8.9399 ZZZZ=            -52.8409 XXXY=              0.0000
 XXXZ=              0.0000 YYYX=              0.0000 YYYZ=              0.0000 ZZZX=              0.0000
 ZZZY=              0.0000 XXYY=             -2.9800 XXZZ=             -9.4339 YYZZ=             -9.4339
 XXYZ=              0.0000 YYXZ=              0.0000 ZZXY=              0.0000
 N-N= 2.357243939553D+01 E-N=-3.029112216621D+02  KE= 1.087396851326D+02
 Unable to Open any file for archive entry.
 1\1\GINC-SHIRAMAC2020\SP\RHF\def2TZVP\N2\TAKAFUMISHIRAOGAWA\19-Nov-202
 2\0\\# hf/def2tzvp nosymm\\n2\\0,1\N,0,0.,0.,0.\N,0,0.,0.,1.1\\Version
 =EM64M-G16RevC.01\HF=-108.9876382\RMSD=3.760e-09\Dipole=0.,0.,0.\Quadr
 upole=0.3321568,0.3321568,-0.6643136,0.,0.,0.\PG=D*H [C*(N1.N1)]\\@
 The archive entry for this job was punched.


 ACCORDING TO HEN3RY, LIFE IS MUCH LIKE A SEWER........
 YOU GET OUT OF IT JUST WHAT YOU PUT INTO IT...........
                         TOM LEHRER - (THE 3 IS SILENT)
 Job cpu time:       0 days  0 hours  0 minutes  0.9 seconds.
 Elapsed time:       0 days  0 hours  0 minutes  1.1 seconds.
 File lengths (MBytes):  RWF=      6 Int=      0 D2E=      0 Chk=      1 Scr=      1
 Normal termination of Gaussian 16 at Sat Nov 19 22:12:48 2022.
